lmp_atoms (by <class 'ase.io.opls.OPLSff'>)

193 atoms
4 atom types
162 bonds
2 bond types
152 angles
3 angle types

0.0 1.0  xlo xhi
0.0 1.0  ylo yhi
0.0 1.0  zlo zhi

Atoms

     1   1   1 0.0 12.765871 11.481378 13.027537 # C1
     2   1   1 0.0 11.46819 10.820968 12.553383 # C1
     3   1   1 0.0 11.709835 9.494655 12.140488 # C1
     4   1   1 0.0 13.124342 9.193334 12.335268 # C1
     5   1   1 0.0 13.776307 10.352879 12.802883 # C1
     6   1   1 0.0 13.056228 12.809074 12.320086 # C1
     7   1   1 0.0 13.132419 13.859756 13.260077 # C1
     8   1   1 0.0 12.95504 13.310801 14.599064 # C1
     9   1   1 0.0 12.714249 11.925858 14.496 # C1
    10   1   1 0.0 13.15487 13.053727 10.958978 # C1
    11   1   1 0.0 13.313852 14.380656 10.506661 # C1
    12   1   1 0.0 13.391042 15.426011 11.446082 # C1
    13   1   1 0.0 13.304686 15.172881 12.812104 # C1
    14   1   1 0.0 13.857211 8.01167 12.171496 # C1
    15   1   1 0.0 15.213378 7.996724 12.482452 # C1
    16   1   1 0.0 15.866416 9.15543 12.946568 # C1
    17   1   1 0.0 15.134323 10.34924 13.086146 # C1
    18   1   1 0.0 10.201998 11.378746 12.491611 # C1
    19   1   1 0.0 9.132313 10.612032 11.989167 # C1
    20   1   1 0.0 9.375977 9.289816 11.563589 # C1
    21   1   1 0.0 10.650073 8.731458 11.639573 # C1
    22   1   1 0.0 12.983849 13.905867 15.86371 # C1
    23   1   1 0.0 12.759038 13.127687 16.996099 # C1
    24   1   1 0.0 12.49807 11.746 16.894829 # C1
    25   1   1 0.0 12.486565 11.144067 15.617226 # C1
    26   1   2 0.0 13.349323 14.674715 9.121119 # N2
    27   1   2 0.0 17.249889 9.130812 13.272155 # N2
    28   1   2 0.0 7.825829 11.16286 11.951859 # N2
    29   1   2 0.0 12.29144 10.978761 18.065693 # N2
    30   1   1 0.0 12.926333 11.402975 19.266439 # C1
    31   1   1 0.0 7.456401 12.05262 13.000278 # C1
    32   1   1 0.0 11.350108 9.91933 18.123665 # C1
    33   1   1 0.0 6.961304 10.986603 10.846687 # C1
    34   1   1 0.0 14.0695 13.867524 8.206905 # C1
    35   1   1 0.0 12.738737 15.868716 8.654246 # C1
    36   1   1 0.0 17.825546 8.034038 13.953522 # C1
    37   1   1 0.0 18.096785 10.133512 12.72436 # C1
    38   1   1 0.0 19.170519 7.686551 13.767467 # C1
    39   1   1 0.0 19.75296 6.630076 14.47263 # C1
    40   1   1 0.0 18.991917 5.884315 15.378078 # C1
    41   1   1 0.0 17.646152 6.224808 15.575031 # C1
    42   1   1 0.0 17.075966 7.285013 14.884471 # C1
    43   1   1 0.0 13.638568 13.731426 6.881566 # C1
    44   1   1 0.0 14.369432 12.985277 5.952114 # C1
    45   1   1 0.0 15.551389 12.349598 6.343523 # C1
    46   1   1 0.0 15.9906 12.484468 7.668946 # C1
    47   1   1 0.0 15.265306 13.229433 8.585279 # C1
    48   1   1 0.0 13.528623 16.901079 8.07382 # C1
    49   1   1 0.0 12.956348 18.095709 7.644215 # C1
    50   1   1 0.0 11.580288 18.307606 7.816683 # C1
    51   1   1 0.0 10.780993 17.321741 8.393006 # C1
    52   1   1 0.0 11.358334 16.106215 8.791224 # C1
    53   1   1 0.0 18.843472 11.02686 13.515141 # C1
    54   1   1 0.0 19.739964 11.936341 12.929086 # C1
    55   1   1 0.0 19.887945 11.970201 11.544679 # C1
    56   1   1 0.0 19.160994 11.0915 10.726437 # C1
    57   1   1 0.0 18.293648 10.175383 11.314809 # C1
    58   1   1 0.0 7.295013 11.611312 14.326657 # C1
    59   1   1 0.0 7.078048 12.518492 15.376348 # C1
    60   1   1 0.0 6.983676 13.879762 15.099205 # C1
    61   1   1 0.0 7.097577 14.351264 13.782217 # C1
    62   1   1 0.0 7.345229 13.44951 12.75106 # C1
    63   1   1 0.0 7.442587 10.671529 9.567285 # C1
    64   1   1 0.0 6.575906 10.513223 8.483105 # C1
    65   1   1 0.0 5.197537 10.685616 8.651133 # C1
    66   1   1 0.0 4.707443 11.019689 9.920395 # C1
    67   1   1 0.0 5.571855 11.161879 10.997646 # C1
    68   1   1 0.0 10.224813 9.880527 17.277493 # C1
    69   1   1 0.0 9.30205 8.848846 17.362854 # C1
    70   1   1 0.0 9.457834 7.824714 18.308069 # C1
    71   1   1 0.0 10.556265 7.861352 19.171902 # C1
    72   1   1 0.0 11.490464 8.897177 19.071514 # C1
    73   1   1 0.0 14.322645 11.349376 19.439438 # C1
    74   1   1 0.0 14.934891 11.89535 20.581223 # C1
    75   1   1 0.0 14.150769 12.466721 21.578924 # C1
    76   1   1 0.0 12.752359 12.502257 21.456699 # C1
    77   1   1 0.0 12.155006 11.990066 20.309015 # C1
    78   1   3 0.0 12.298578 10.074925 15.518802 # H0
    79   1   3 0.0 10.027087 12.40428 12.816431 # H0
    80   1   3 0.0 8.551142 8.697108 11.169473 # H0
    81   1   3 0.0 10.806482 7.701924 11.314605 # H0
    82   1   3 0.0 13.377845 7.103715 11.80277 # H0
    83   1   3 0.0 15.792231 7.082855 12.356631 # H0
    84   1   3 0.0 13.171407 14.97478 15.974957 # H0
    85   1   3 0.0 12.778033 13.589573 17.982023 # H0
    86   1   3 0.0 13.365525 16.000807 13.519701 # H0
    87   1   3 0.0 13.514853 16.447252 11.087478 # H0
    88   1   3 0.0 15.631177 11.251674 13.440351 # H0
    89   1   3 0.0 13.081622 12.238867 10.238117 # H0
    90   1   4 -0.683 8.487679 6.851943 18.310698 # O3
    91   1   1 0.0 8.627448 5.798357 19.253035 # C1
    92   1   4 -0.683 4.261377 10.557178 7.654039 # O3
    93   1   1 0.0 4.735213 10.229514 6.355598 # C1
    94   1   4 -0.683 19.461164 4.823919 16.114399 # O3
    95   1   4 -0.683 16.346357 11.59036 5.519991 # O3
    96   1   1 0.0 15.927421 11.441433 4.170288 # C1
    97   1   1 0.0 20.821579 4.458471 15.931027 # C1
    98   1   3 0.0 17.057989 5.649425 16.289881 # H0
    99   1   3 0.0 16.030449 7.534969 15.059881 # H0
   100   1   3 0.0 12.724807 14.231464 6.561223 # H0
   101   1   3 0.0 20.802433 6.400502 14.29866 # H0
   102   1   3 0.0 19.77877 8.255154 13.065497 # H0
   103   1   3 0.0 16.930817 12.018164 7.960542 # H0
   104   1   3 0.0 15.636262 13.339784 9.603094 # H0
   105   1   3 0.0 12.330301 8.918417 19.765165 # H0
   106   1   3 0.0 10.705853 7.091727 19.926493 # H0
   107   1   3 0.0 8.438163 8.840267 16.699505 # H0
   108   1   3 0.0 10.061425 10.671818 16.548426 # H0
   109   1   3 0.0 6.996382 10.268052 7.509585 # H0
   110   1   3 0.0 8.512735 10.552831 9.40706 # H0
   111   1   3 0.0 3.634442 11.160416 10.049075 # H0
   112   1   3 0.0 5.16982 11.434103 11.972775 # H0
   113   1   3 0.0 5.255928 9.257771 6.346143 # H0
   114   1   3 0.0 5.414466 11.00463 5.963599 # H0
   115   1   3 0.0 3.8481 10.170483 5.716409 # H0
   116   1   3 0.0 15.879136 12.412913 3.651197 # H0
   117   1   3 0.0 14.943507 10.948743 4.103146 # H0
   118   1   3 0.0 16.681301 10.810912 3.687623 # H0
   119   1   3 0.0 20.997221 3.605054 16.594311 # H0
   120   1   3 0.0 21.50338 5.279844 16.207296 # H0
   121   1   3 0.0 21.024418 4.158154 14.889838 # H0
   122   1   3 0.0 8.606983 6.174675 20.28945 # H0
   123   1   3 0.0 9.56099 5.233338 19.095028 # H0
   124   1   3 0.0 7.771644 5.134105 19.093048 # H0
   125   1   3 0.0 7.026386 15.420896 13.60649 # H0
   126   1   4 -0.683 7.535441 13.823523 11.456315 # O3
   127   1   3 0.0 6.974843 12.112335 16.378605 # H0
   128   1   4 -0.683 7.407916 10.301806 14.71694 # O3
   129   1   4 -0.683 15.197424 10.842463 18.517826 # O3
   130   1   3 0.0 16.016739 11.825114 20.651758 # H0
   131   1   3 0.0 12.17382 12.961072 22.253973 # H0
   132   1   4 -0.683 10.813651 12.040751 20.074303 # O3
   133   1   3 0.0 20.286098 12.599176 13.594411 # H0
   134   1   4 -0.683 18.847567 11.022991 14.886077 # O3
   135   1   3 0.0 19.318357 11.130071 9.651718 # H0
   136   1   4 -0.683 17.608885 9.22933 10.615099 # O3
   137   1   4 -0.683 10.509978 15.209958 9.397 # O3
   138   1   3 0.0 9.710728 17.444014 8.535954 # H0
   139   1   3 0.0 13.550496 18.891106 7.202295 # H0
   140   1   4 -0.683 14.86291 16.639587 8.002181 # O3
   141   1   4 -0.683 6.766691 14.8432 16.045252 # O3
   142   1   1 0.0 6.690244 14.421955 17.403484 # C1
   143   1   4 -0.683 11.117606 19.518755 7.378263 # O3
   144   1   1 0.0 9.729507 19.788462 7.541472 # C1
   145   1   4 -0.683 20.720913 12.82914 10.880848 # O3
   146   1   1 0.0 21.489586 13.734403 11.665954 # C1
   147   1   4 -0.683 14.64731 13.01283 22.730961 # O3
   148   1   1 0.0 16.062199 13.031611 22.891161 # C1
   149   1   3 0.0 6.545695 15.334326 17.991041 # H0
   150   1   3 0.0 7.619219 13.922692 17.721422 # H0
   151   1   3 0.0 5.838407 13.743141 17.56794 # H0
   152   1   3 0.0 16.247833 13.528266 23.848803 # H0
   153   1   3 0.0 16.550844 13.598269 22.083017 # H0
   154   1   3 0.0 16.47794 12.011967 22.92148 # H0
   155   1   3 0.0 22.081566 14.31889 10.954296 # H0
   156   1   3 0.0 22.165558 13.199588 12.351963 # H0
   157   1   3 0.0 20.84424 14.410972 12.248122 # H0
   158   1   3 0.0 9.110373 19.07073 6.980178 # H0
   159   1   3 0.0 9.571031 20.794945 7.141294 # H0
   160   1   3 0.0 9.436958 19.766729 8.603243 # H0
   161   1   1 0.0 9.983911 12.607668 21.081253 # C1
   162   1   1 0.0 17.596357 11.097242 15.584219 # C1
   163   1   3 0.0 14.00017 12.908238 4.931457 # H0
   164   1   1 0.0 15.706468 17.627245 7.420638 # C1
   165   1   1 0.0 7.469899 15.215213 11.151979 # C1
   166   1   3 0.0 7.663223 15.292875 10.078251 # H0
   167   1   3 0.0 8.242043 15.779776 11.696215 # H0
   168   1   3 0.0 6.474621 15.626143 11.38301 # H0
   169   1   3 0.0 8.960756 12.530681 20.699427 # H0
   170   1   3 0.0 10.231647 13.666374 21.259712 # H0
   171   1   3 0.0 10.062889 12.051644 22.02836 # H0
   172   1   3 0.0 17.85503 11.235653 16.639381 # H0
   173   1   3 0.0 17.001371 10.183576 15.470492 # H0
   174   1   3 0.0 17.011543 11.964557 15.242428 # H0
   175   1   3 0.0 15.676809 18.569437 7.990764 # H0
   176   1   3 0.0 15.429685 17.826862 6.373449 # H0
   177   1   3 0.0 16.717773 17.210073 7.457028 # H0
   178   1   1 0.0 14.891868 9.594049 17.874781 # C1
   179   1   1 0.0 17.849569 9.122411 9.215915 # C1
   180   1   1 0.0 10.354555 13.931409 8.76121 # C1
   181   1   1 0.0 6.685472 9.30013 13.985653 # C1
   182   1   3 0.0 17.25297 8.268806 8.878773 # H0
   183   1   3 0.0 18.914604 8.936002 9.005916 # H0
   184   1   3 0.0 17.521976 10.023823 8.677292 # H0
   185   1   3 0.0 6.556173 8.462316 14.681566 # H0
   186   1   3 0.0 7.240087 8.956937 13.104242 # H0
   187   1   3 0.0 5.69797 9.672849 13.67863 # H0
   188   1   3 0.0 9.616172 13.388025 9.360666 # H0
   189   1   3 0.0 9.974473 14.059693 7.734557 # H0
   190   1   3 0.0 11.294285 13.365411 8.737472 # H0
   191   1   3 0.0 15.861041 9.148004 17.620804 # H0
   192   1   3 0.0 14.307309 9.741794 16.958431 # H0
   193   1   3 0.0 14.350421 8.920916 18.552931 # H0

Velocities

     1 0 0 0
     2 0 0 0
     3 0 0 0
     4 0 0 0
     5 0 0 0
     6 0 0 0
     7 0 0 0
     8 0 0 0
     9 0 0 0
    10 0 0 0
    11 0 0 0
    12 0 0 0
    13 0 0 0
    14 0 0 0
    15 0 0 0
    16 0 0 0
    17 0 0 0
    18 0 0 0
    19 0 0 0
    20 0 0 0
    21 0 0 0
    22 0 0 0
    23 0 0 0
    24 0 0 0
    25 0 0 0
    26 0 0 0
    27 0 0 0
    28 0 0 0
    29 0 0 0
    30 0 0 0
    31 0 0 0
    32 0 0 0
    33 0 0 0
    34 0 0 0
    35 0 0 0
    36 0 0 0
    37 0 0 0
    38 0 0 0
    39 0 0 0
    40 0 0 0
    41 0 0 0
    42 0 0 0
    43 0 0 0
    44 0 0 0
    45 0 0 0
    46 0 0 0
    47 0 0 0
    48 0 0 0
    49 0 0 0
    50 0 0 0
    51 0 0 0
    52 0 0 0
    53 0 0 0
    54 0 0 0
    55 0 0 0
    56 0 0 0
    57 0 0 0
    58 0 0 0
    59 0 0 0
    60 0 0 0
    61 0 0 0
    62 0 0 0
    63 0 0 0
    64 0 0 0
    65 0 0 0
    66 0 0 0
    67 0 0 0
    68 0 0 0
    69 0 0 0
    70 0 0 0
    71 0 0 0
    72 0 0 0
    73 0 0 0
    74 0 0 0
    75 0 0 0
    76 0 0 0
    77 0 0 0
    78 0 0 0
    79 0 0 0
    80 0 0 0
    81 0 0 0
    82 0 0 0
    83 0 0 0
    84 0 0 0
    85 0 0 0
    86 0 0 0
    87 0 0 0
    88 0 0 0
    89 0 0 0
    90 0 0 0
    91 0 0 0
    92 0 0 0
    93 0 0 0
    94 0 0 0
    95 0 0 0
    96 0 0 0
    97 0 0 0
    98 0 0 0
    99 0 0 0
   100 0 0 0
   101 0 0 0
   102 0 0 0
   103 0 0 0
   104 0 0 0
   105 0 0 0
   106 0 0 0
   107 0 0 0
   108 0 0 0
   109 0 0 0
   110 0 0 0
   111 0 0 0
   112 0 0 0
   113 0 0 0
   114 0 0 0
   115 0 0 0
   116 0 0 0
   117 0 0 0
   118 0 0 0
   119 0 0 0
   120 0 0 0
   121 0 0 0
   122 0 0 0
   123 0 0 0
   124 0 0 0
   125 0 0 0
   126 0 0 0
   127 0 0 0
   128 0 0 0
   129 0 0 0
   130 0 0 0
   131 0 0 0
   132 0 0 0
   133 0 0 0
   134 0 0 0
   135 0 0 0
   136 0 0 0
   137 0 0 0
   138 0 0 0
   139 0 0 0
   140 0 0 0
   141 0 0 0
   142 0 0 0
   143 0 0 0
   144 0 0 0
   145 0 0 0
   146 0 0 0
   147 0 0 0
   148 0 0 0
   149 0 0 0
   150 0 0 0
   151 0 0 0
   152 0 0 0
   153 0 0 0
   154 0 0 0
   155 0 0 0
   156 0 0 0
   157 0 0 0
   158 0 0 0
   159 0 0 0
   160 0 0 0
   161 0 0 0
   162 0 0 0
   163 0 0 0
   164 0 0 0
   165 0 0 0
   166 0 0 0
   167 0 0 0
   168 0 0 0
   169 0 0 0
   170 0 0 0
   171 0 0 0
   172 0 0 0
   173 0 0 0
   174 0 0 0
   175 0 0 0
   176 0 0 0
   177 0 0 0
   178 0 0 0
   179 0 0 0
   180 0 0 0
   181 0 0 0
   182 0 0 0
   183 0 0 0
   184 0 0 0
   185 0 0 0
   186 0 0 0
   187 0 0 0
   188 0 0 0
   189 0 0 0
   190 0 0 0
   191 0 0 0
   192 0 0 0
   193 0 0 0

Masses

     1 12.011 # C1 -> C
     2 14.007 # N2 -> N
     3 1.008 # H0 -> H
     4 15.999 # O3 -> O

Bonds

       1      1      1      2 
       2      1      1      5 
       3      1      1      6 
       4      1      1      9 
       5      1      2      3 
       6      1      2     18 
       7      1      3      4 
       8      1      3     21 
       9      1      4      5 
      10      1      4     14 
      11      1      5     17 
      12      1      6      7 
      13      1      6     10 
      14      1      7      8 
      15      1      7     13 
      16      1      8      9 
      17      1      8     22 
      18      1      9     25 
      19      1     10     11 
      20      2     10     89 
      21      1     11     12 
      22      1     12     13 
      23      2     12     87 
      24      2     13     86 
      25      1     14     15 
      26      2     14     82 
      27      1     15     16 
      28      2     15     83 
      29      1     16     17 
      30      2     17     88 
      31      1     18     19 
      32      2     18     79 
      33      1     19     20 
      34      1     20     21 
      35      2     20     80 
      36      2     21     81 
      37      1     22     23 
      38      2     22     84 
      39      1     23     24 
      40      2     23     85 
      41      1     24     25 
      42      2     25     78 
      43      1     30     73 
      44      1     30     77 
      45      1     31     58 
      46      1     31     62 
      47      1     32     68 
      48      1     32     72 
      49      1     33     63 
      50      1     33     67 
      51      1     34     43 
      52      1     34     47 
      53      1     35     48 
      54      1     35     52 
      55      1     36     38 
      56      1     36     42 
      57      1     37     53 
      58      1     37     57 
      59      1     38     39 
      60      2     38    102 
      61      1     39     40 
      62      2     39    101 
      63      1     40     41 
      64      1     41     42 
      65      2     41     98 
      66      2     42     99 
      67      1     43     44 
      68      2     43    100 
      69      1     44     45 
      70      2     44    163 
      71      1     45     46 
      72      1     46     47 
      73      2     46    103 
      74      2     47    104 
      75      1     48     49 
      76      1     49     50 
      77      2     49    139 
      78      1     50     51 
      79      1     51     52 
      80      2     51    138 
      81      1     53     54 
      82      1     54     55 
      83      2     54    133 
      84      1     55     56 
      85      1     56     57 
      86      2     56    135 
      87      1     58     59 
      88      1     59     60 
      89      2     59    127 
      90      1     60     61 
      91      1     61     62 
      92      2     61    125 
      93      1     63     64 
      94      2     63    110 
      95      1     64     65 
      96      2     64    109 
      97      1     65     66 
      98      1     66     67 
      99      2     66    111 
     100      2     67    112 
     101      1     68     69 
     102      2     68    108 
     103      1     69     70 
     104      2     69    107 
     105      1     70     71 
     106      1     71     72 
     107      2     71    106 
     108      2     72    105 
     109      1     73     74 
     110      1     74     75 
     111      2     74    130 
     112      1     75     76 
     113      1     76     77 
     114      2     76    131 
     115      2     91    122 
     116      2     91    123 
     117      2     91    124 
     118      2     93    113 
     119      2     93    114 
     120      2     93    115 
     121      2     96    116 
     122      2     96    117 
     123      2     96    118 
     124      2     97    119 
     125      2     97    120 
     126      2     97    121 
     127      2    142    149 
     128      2    142    150 
     129      2    142    151 
     130      2    144    158 
     131      2    144    159 
     132      2    144    160 
     133      2    146    155 
     134      2    146    156 
     135      2    146    157 
     136      2    148    152 
     137      2    148    153 
     138      2    148    154 
     139      2    161    169 
     140      2    161    170 
     141      2    161    171 
     142      2    162    172 
     143      2    162    173 
     144      2    162    174 
     145      2    164    175 
     146      2    164    176 
     147      2    164    177 
     148      2    165    166 
     149      2    165    167 
     150      2    165    168 
     151      2    178    191 
     152      2    178    192 
     153      2    178    193 
     154      2    179    182 
     155      2    179    183 
     156      2    179    184 
     157      2    180    188 
     158      2    180    189 
     159      2    180    190 
     160      2    181    185 
     161      2    181    186 
     162      2    181    187 

Angles

       1      1     11     10     89 
       2      1      6     10     89 
       3      1     13     12     87 
       4      1     11     12     87 
       5      1      7     13     86 
       6      1     12     13     86 
       7      1     15     14     82 
       8      1      4     14     82 
       9      1     16     15     83 
      10      1     14     15     83 
      11      1      5     17     88 
      12      1     16     17     88 
      13      1     19     18     79 
      14      1      2     18     79 
      15      1     21     20     80 
      16      1     19     20     80 
      17      1      3     21     81 
      18      1     20     21     81 
      19      1     23     22     84 
      20      1      8     22     84 
      21      1     24     23     85 
      22      1     22     23     85 
      23      1      9     25     78 
      24      1     24     25     78 
      25      1     39     38    102 
      26      1     36     38    102 
      27      1     40     39    101 
      28      1     38     39    101 
      29      2     41     40     94 
      30      2     39     40     94 
      31      1     42     41     98 
      32      1     40     41     98 
      33      1     36     42     99 
      34      1     41     42     99 
      35      1     44     43    100 
      36      1     34     43    100 
      37      1     45     44    163 
      38      1     43     44    163 
      39      2     46     45     95 
      40      2     44     45     95 
      41      1     47     46    103 
      42      1     45     46    103 
      43      1     34     47    104 
      44      1     46     47    104 
      45      2     49     48    140 
      46      2     35     48    140 
      47      1     50     49    139 
      48      1     48     49    139 
      49      2     51     50    143 
      50      2     49     50    143 
      51      1     52     51    138 
      52      1     50     51    138 
      53      2     35     52    137 
      54      2     51     52    137 
      55      2     54     53    134 
      56      2     37     53    134 
      57      1     55     54    133 
      58      1     53     54    133 
      59      2     56     55    145 
      60      2     54     55    145 
      61      1     57     56    135 
      62      1     55     56    135 
      63      2     37     57    136 
      64      2     56     57    136 
      65      2     59     58    128 
      66      2     31     58    128 
      67      1     60     59    127 
      68      1     58     59    127 
      69      2     61     60    141 
      70      2     59     60    141 
      71      1     62     61    125 
      72      1     60     61    125 
      73      2     31     62    126 
      74      2     61     62    126 
      75      1     64     63    110 
      76      1     33     63    110 
      77      1     65     64    109 
      78      1     63     64    109 
      79      2     66     65     92 
      80      2     64     65     92 
      81      1     67     66    111 
      82      1     65     66    111 
      83      1     33     67    112 
      84      1     66     67    112 
      85      1     69     68    108 
      86      1     32     68    108 
      87      1     70     69    107 
      88      1     68     69    107 
      89      2     71     70     90 
      90      2     69     70     90 
      91      1     72     71    106 
      92      1     70     71    106 
      93      1     32     72    105 
      94      1     71     72    105 
      95      2     74     73    129 
      96      2     30     73    129 
      97      1     75     74    130 
      98      1     73     74    130 
      99      2     76     75    147 
     100      2     74     75    147 
     101      1     77     76    131 
     102      1     75     76    131 
     103      2     30     77    132 
     104      2     76     77    132 
     105      3    122     91    123 
     106      3    122     91    124 
     107      3    123     91    124 
     108      3    113     93    114 
     109      3    113     93    115 
     110      3    114     93    115 
     111      3    116     96    117 
     112      3    116     96    118 
     113      3    117     96    118 
     114      3    119     97    120 
     115      3    119     97    121 
     116      3    120     97    121 
     117      3    149    142    150 
     118      3    149    142    151 
     119      3    150    142    151 
     120      3    158    144    159 
     121      3    158    144    160 
     122      3    159    144    160 
     123      3    155    146    156 
     124      3    155    146    157 
     125      3    156    146    157 
     126      3    152    148    153 
     127      3    152    148    154 
     128      3    153    148    154 
     129      3    169    161    170 
     130      3    169    161    171 
     131      3    170    161    171 
     132      3    172    162    173 
     133      3    172    162    174 
     134      3    173    162    174 
     135      3    175    164    176 
     136      3    175    164    177 
     137      3    176    164    177 
     138      3    166    165    167 
     139      3    166    165    168 
     140      3    167    165    168 
     141      3    191    178    192 
     142      3    191    178    193 
     143      3    192    178    193 
     144      3    182    179    183 
     145      3    182    179    184 
     146      3    183    179    184 
     147      3    188    180    189 
     148      3    188    180    190 
     149      3    189    180    190 
     150      3    185    181    186 
     151      3    185    181    187 
     152      3    186    181    187 
